    1C
    1UUSER                                                              
    1UDATE              12.january.2014                                 
    1UTIME              21:08:16                                        
    1UHOST                                                              
    1UPGM               CalculiX                                        
    1UDIR                                                               
    1UDBN                                                               
    2C                            52                                     1
 -1       106 0.00000E+00 1.00000E-03 1.00000E-03
 -1       107 0.00000E+00-1.00000E-03 1.00000E-03
 -1       108 0.00000E+00-1.00000E-03-1.00000E-03
 -1       109 0.00000E+00 1.00000E-03-1.00000E-03
 -1       114-8.66019E-04 5.00011E-04 1.00000E-03
 -1       115 8.66019E-04-5.00011E-04 1.00000E-03
 -1       116 8.66019E-04-5.00011E-04-1.00000E-03
 -1       117-8.66019E-04 5.00011E-04-1.00000E-03
 -1       140 1.00000E+00 1.00000E-03 1.00000E-03
 -1       141 1.00000E+00-1.00000E-03 1.00000E-03
 -1       142 1.00000E+00-1.00000E-03-1.00000E-03
 -1       143 1.00000E+00 1.00000E-03-1.00000E-03
 -1       148 9.99134E-01-5.00011E-04 1.00000E-03
 -1       149 1.00087E+00 5.00011E-04 1.00000E-03
 -1       150 1.00087E+00 5.00011E-04-1.00000E-03
 -1       151 9.99134E-01-5.00011E-04-1.00000E-03
 -1       156 9.99134E-01 5.00011E-04 1.00000E-03
 -1       157 1.00087E+00-5.00011E-04 1.00000E-03
 -1       158 1.00087E+00-5.00011E-04-1.00000E-03
 -1       159 9.99134E-01 5.00011E-04-1.00000E-03
 -1       190 2.00000E+00 1.00000E-03 1.00000E-03
 -1       191 2.00000E+00-1.00000E-03 1.00000E-03
 -1       192 2.00000E+00-1.00000E-03-1.00000E-03
 -1       193 2.00000E+00 1.00000E-03-1.00000E-03
 -1       198 1.99913E+00-5.00011E-04 1.00000E-03
 -1       199 2.00087E+00 5.00011E-04 1.00000E-03
 -1       200 2.00087E+00 5.00011E-04-1.00000E-03
 -1       201 1.99913E+00-5.00011E-04-1.00000E-03
 -1       224 4.99134E-01 8.66500E-01 1.00000E-03
 -1       225 5.00866E-01 8.65500E-01 1.00000E-03
 -1       226 5.00866E-01 8.65500E-01-1.00000E-03
 -1       227 4.99134E-01 8.66500E-01-1.00000E-03
 -1       232 4.99134E-01 8.65500E-01 1.00000E-03
 -1       233 5.00866E-01 8.66500E-01 1.00000E-03
 -1       234 5.00866E-01 8.66500E-01-1.00000E-03
 -1       235 4.99134E-01 8.65500E-01-1.00000E-03
 -1       240 5.00000E-01 8.67000E-01 1.00000E-03
 -1       241 5.00000E-01 8.65000E-01 1.00000E-03
 -1       242 5.00000E-01 8.65000E-01-1.00000E-03
 -1       243 5.00000E-01 8.67000E-01-1.00000E-03
 -1       274 1.49913E+00 8.66500E-01 1.00000E-03
 -1       275 1.50087E+00 8.65500E-01 1.00000E-03
 -1       276 1.50087E+00 8.65500E-01-1.00000E-03
 -1       277 1.49913E+00 8.66500E-01-1.00000E-03
 -1       282 1.49913E+00 8.65500E-01 1.00000E-03
 -1       283 1.50087E+00 8.66500E-01 1.00000E-03
 -1       284 1.50087E+00 8.66500E-01-1.00000E-03
 -1       285 1.49913E+00 8.65500E-01-1.00000E-03
 -1       290 1.50000E+00 8.67000E-01 1.00000E-03
 -1       291 1.50000E+00 8.65000E-01 1.00000E-03
 -1       292 1.50000E+00 8.65000E-01-1.00000E-03
 -1       293 1.50000E+00 8.67000E-01-1.00000E-03
 -3
    3C                             7                                     1
 -1        11    1    0STEEL
 -2       106       140       141       107       109       143       142       108
 -1        12    1    0STEEL
 -2       140       190       191       141       143       193       192       142
 -1        13    1    0STEEL
 -2       114       224       225       115       117       227       226       116
 -1        14    1    0STEEL
 -2       148       232       233       149       151       235       234       150
 -1        15    1    0STEEL
 -2       156       274       275       157       159       277       276       158
 -1        16    1    0STEEL
 -2       198       282       283       199       201       285       284       200
 -1        17    1    0STEEL
 -2       240       290       291       241       243       293       292       242
 -3
    1PSTEP                         1           1           1          
  100CL  101 1.00000E-03          52                     1    1           1
 -4  DISP        4    1
 -5  D1          1    2    1    0
 -5  D2          1    2    2    0
 -5  D3          1    2    3    0
 -5  ALL         1    2    0    0    1ALL
 -1       106 0.00000E+00 3.32910E-06 3.32910E-06
 -1       107 0.00000E+00-3.32910E-06 3.32910E-06
 -1       108 0.00000E+00-3.32910E-06-3.32910E-06
 -1       109 0.00000E+00 3.32910E-06-3.32910E-06
 -1       114-2.88306E-06 1.66459E-06 3.32910E-06
 -1       115 2.88306E-06-1.66459E-06 3.32910E-06
 -1       116 2.88306E-06-1.66459E-06-3.32910E-06
 -1       117-2.88306E-06 1.66459E-06-3.32910E-06
 -1       140 8.66715E-04-1.80351E-02-4.46106E-06
 -1       141 8.53694E-04-1.80261E-02-4.46106E-06
 -1       142 8.53694E-04-1.80261E-02 4.46106E-06
 -1       143 8.66715E-04-1.80351E-02 4.46106E-06
 -1       148 8.60831E-04-1.80227E-02-4.46106E-06
 -1       149 8.59578E-04-1.80385E-02-4.46106E-06
 -1       150 8.59578E-04-1.80385E-02 4.46106E-06
 -1       151 8.60831E-04-1.80227E-02 4.46106E-06
 -1       156 8.67341E-04-1.80272E-02-4.46106E-06
 -1       157 8.53067E-04-1.80340E-02-4.46106E-06
 -1       158 8.53067E-04-1.80340E-02 4.46106E-06
 -1       159 8.67341E-04-1.80272E-02 4.46106E-06
 -1       190 5.39747E-03 1.12396E-06 1.55354E-06
 -1       191 5.45614E-03-1.12396E-06 1.55354E-06
 -1       192 5.45614E-03-1.12396E-06-1.55354E-06
 -1       193 5.39747E-03 1.12396E-06-1.55354E-06
 -1       198 5.44050E-03-2.59631E-05 1.55354E-06
 -1       199 5.41311E-03 2.59631E-05 1.55354E-06
 -1       200 5.41311E-03 2.59631E-05-1.55354E-06
 -1       201 5.44050E-03-2.59631E-05-1.55354E-06
 -1       224 3.60297E-03-7.90229E-03 2.73530E-07
 -1       225 3.59230E-03-7.92162E-03 2.73530E-07
 -1       226 3.59230E-03-7.92162E-03-2.73530E-07
 -1       227 3.60297E-03-7.90229E-03-2.73530E-07
 -1       232 3.59194E-03-7.90250E-03 2.73530E-07
 -1       233 3.60334E-03-7.92140E-03 2.73530E-07
 -1       234 3.60334E-03-7.92140E-03-2.73530E-07
 -1       235 3.59194E-03-7.90250E-03-2.73530E-07
 -1       240 3.60867E-03-7.91174E-03 2.73530E-07
 -1       241 3.58660E-03-7.91217E-03 2.73530E-07
 -1       242 3.58660E-03-7.91217E-03-2.73530E-07
 -1       243 3.60867E-03-7.91174E-03-2.73530E-07
 -1       274-1.62858E-03-1.07122E-02 2.03998E-06
 -1       275-1.61936E-03-1.07044E-02 2.03998E-06
 -1       276-1.61936E-03-1.07044E-02-2.03998E-06
 -1       277-1.62858E-03-1.07122E-02-2.03998E-06
 -1       282-1.62286E-03-1.07143E-02 2.03998E-06
 -1       283-1.62508E-03-1.07023E-02 2.03998E-06
 -1       284-1.62508E-03-1.07023E-02-2.03998E-06
 -1       285-1.62286E-03-1.07143E-02-2.03998E-06
 -1       290-1.62969E-03-1.07063E-02 2.03998E-06
 -1       291-1.61825E-03-1.07103E-02 2.03998E-06
 -1       292-1.61825E-03-1.07103E-02-2.03998E-06
 -1       293-1.62969E-03-1.07063E-02-2.03998E-06
 -3
    1PSTEP                         2           2           1          
  100CL  102 2.00000E-03          52                     1    2           1
 -4  DISP        4    1
 -5  D1          1    2    1    0
 -5  D2          1    2    2    0
 -5  D3          1    2    3    0
 -5  ALL         1    2    0    0    1ALL
 -1       106 0.00000E+00 2.73764E-06 2.73764E-06
 -1       107 0.00000E+00-2.73764E-06 2.73764E-06
 -1       108 0.00000E+00-2.73764E-06-2.73764E-06
 -1       109 0.00000E+00 2.73764E-06-2.73764E-06
 -1       114-2.37085E-06 1.36885E-06 2.73764E-06
 -1       115 2.37085E-06-1.36885E-06 2.73764E-06
 -1       116 2.37085E-06-1.36885E-06-2.73764E-06
 -1       117-2.37085E-06 1.36885E-06-2.73764E-06
 -1       140 3.22479E-03-1.91715E-02-4.46866E-06
 -1       141 3.20883E-03-1.91625E-02-4.46866E-06
 -1       142 3.20883E-03-1.91625E-02 4.46866E-06
 -1       143 3.22479E-03-1.91715E-02 4.46866E-06
 -1       148 3.21672E-03-1.91578E-02-4.46866E-06
 -1       149 3.21690E-03-1.91762E-02-4.46866E-06
 -1       150 3.21690E-03-1.91762E-02 4.46866E-06
 -1       151 3.21672E-03-1.91578E-02 4.46866E-06
 -1       156 3.22470E-03-1.91623E-02-4.46866E-06
 -1       157 3.20893E-03-1.91717E-02-4.46866E-06
 -1       158 3.20893E-03-1.91717E-02 4.46866E-06
 -1       159 3.22470E-03-1.91623E-02 4.46866E-06
 -1       190 9.78146E-03 1.02655E-06 1.64435E-06
 -1       191 9.85181E-03-1.02655E-06 1.64435E-06
 -1       192 9.85181E-03-1.02655E-06-1.64435E-06
 -1       193 9.78146E-03 1.02655E-06-1.64435E-06
 -1       198 9.83334E-03-3.09752E-05 1.64435E-06
 -1       199 9.79994E-03 3.09752E-05 1.64435E-06
 -1       200 9.79994E-03 3.09752E-05-1.64435E-06
 -1       201 9.83334E-03-3.09752E-05-1.64435E-06
 -1       224 7.01280E-03-1.21644E-02 1.31868E-06
 -1       225 7.00061E-03-1.21904E-02 1.31868E-06
 -1       226 7.00061E-03-1.21904E-02-1.31868E-06
 -1       227 7.01280E-03-1.21644E-02-1.31868E-06
 -1       232 6.99851E-03-1.21657E-02 1.31868E-06
 -1       233 7.01491E-03-1.21892E-02 1.31868E-06
 -1       234 7.01491E-03-1.21892E-02-1.31868E-06
 -1       235 6.99851E-03-1.21657E-02-1.31868E-06
 -1       240 7.02101E-03-1.21762E-02 1.31868E-06
 -1       241 6.99241E-03-1.21786E-02 1.31868E-06
 -1       242 6.99241E-03-1.21786E-02-1.31868E-06
 -1       243 7.02101E-03-1.21762E-02-1.31868E-06
 -1       274 7.14639E-04-1.60138E-02 3.44425E-06
 -1       275 7.26756E-04-1.60065E-02 3.44425E-06
 -1       276 7.26756E-04-1.60065E-02-3.44425E-06
 -1       277 7.14639E-04-1.60138E-02-3.44425E-06
 -1       282 7.20823E-04-1.60172E-02 3.44425E-06
 -1       283 7.20571E-04-1.60031E-02 3.44425E-06
 -1       284 7.20571E-04-1.60031E-02-3.44425E-06
 -1       285 7.20823E-04-1.60172E-02-3.44425E-06
 -1       290 7.14513E-04-1.60067E-02 3.44425E-06
 -1       291 7.26882E-04-1.60136E-02 3.44425E-06
 -1       292 7.26882E-04-1.60136E-02-3.44425E-06
 -1       293 7.14513E-04-1.60067E-02-3.44425E-06
 -3
    1PSTEP                         3           3           1          
  100CL  103 3.50000E-03          52                     1    3           1
 -4  DISP        4    1
 -5  D1          1    2    1    0
 -5  D2          1    2    2    0
 -5  D3          1    2    3    0
 -5  ALL         1    2    0    0    1ALL
 -1       106 0.00000E+00 1.79996E-07 1.79996E-07
 -1       107 0.00000E+00-1.79996E-07 1.79996E-07
 -1       108 0.00000E+00-1.79996E-07-1.79996E-07
 -1       109 0.00000E+00 1.79996E-07-1.79996E-07
 -1       114-1.55880E-07 9.00002E-08 1.79996E-07
 -1       115 1.55880E-07-9.00002E-08 1.79996E-07
 -1       116 1.55880E-07-9.00002E-08-1.79996E-07
 -1       117-1.55880E-07 9.00002E-08-1.79996E-07
 -1       140 1.06675E-03-4.16616E-03-1.38913E-06
 -1       141 1.06458E-03-4.16338E-03-1.38913E-06
 -1       142 1.06458E-03-4.16338E-03 1.38913E-06
 -1       143 1.06675E-03-4.16616E-03 1.38913E-06
 -1       148 1.06633E-03-4.16314E-03-1.38913E-06
 -1       149 1.06500E-03-4.16641E-03-1.38913E-06
 -1       150 1.06500E-03-4.16641E-03 1.38913E-06
 -1       151 1.06633E-03-4.16314E-03 1.38913E-06
 -1       156 1.06741E-03-4.16453E-03-1.38913E-06
 -1       157 1.06392E-03-4.16502E-03-1.38913E-06
 -1       158 1.06392E-03-4.16502E-03 1.38913E-06
 -1       159 1.06741E-03-4.16453E-03 1.38913E-06
 -1       190 1.80627E-03 2.81413E-07 2.91414E-07
 -1       191 1.81522E-03-2.81413E-07 2.91414E-07
 -1       192 1.81522E-03-2.81413E-07-2.91414E-07
 -1       193 1.80627E-03 2.81413E-07-2.91414E-07
 -1       198 1.81274E-03-4.01435E-06 2.91414E-07
 -1       199 1.80875E-03 4.01435E-06 2.91414E-07
 -1       200 1.80875E-03 4.01435E-06-2.91414E-07
 -1       201 1.81274E-03-4.01435E-06-2.91414E-07
 -1       224 1.76465E-03 3.86372E-04-3.88544E-07
 -1       225 1.76096E-03 3.81563E-04-3.88544E-07
 -1       226 1.76096E-03 3.81563E-04 3.88544E-07
 -1       227 1.76465E-03 3.86372E-04 3.88544E-07
 -1       232 1.76164E-03 3.86765E-04-3.88544E-07
 -1       233 1.76397E-03 3.81170E-04-3.88544E-07
 -1       234 1.76397E-03 3.81170E-04 3.88544E-07
 -1       235 1.76164E-03 3.86765E-04 3.88544E-07
 -1       240 1.76581E-03 3.83575E-04-3.88544E-07
 -1       241 1.75980E-03 3.84361E-04-3.88544E-07
 -1       242 1.75980E-03 3.84361E-04 3.88544E-07
 -1       243 1.76581E-03 3.83575E-04 3.88544E-07
 -1       274 1.28825E-03 8.30099E-05-3.31521E-07
 -1       275 1.28892E-03 8.54919E-05-3.31521E-07
 -1       276 1.28892E-03 8.54919E-05 3.31521E-07
 -1       277 1.28825E-03 8.30099E-05 3.31521E-07
 -1       282 1.28949E-03 8.33422E-05-3.31521E-07
 -1       283 1.28768E-03 8.51596E-05-3.31521E-07
 -1       284 1.28768E-03 8.51596E-05 3.31521E-07
 -1       285 1.28949E-03 8.33422E-05 3.31521E-07
 -1       290 1.28734E-03 8.39186E-05-3.31521E-07
 -1       291 1.28983E-03 8.45832E-05-3.31521E-07
 -1       292 1.28983E-03 8.45832E-05 3.31521E-07
 -1       293 1.28734E-03 8.39186E-05 3.31521E-07
 -3
    1PSTEP                         4           4           1          
  100CL  104 5.75000E-03          52                     1    4           1
 -4  DISP        4    1
 -5  D1          1    2    1    0
 -5  D2          1    2    2    0
 -5  D3          1    2    3    0
 -5  ALL         1    2    0    0    1ALL
 -1       106 0.00000E+00 4.13295E-06 4.13295E-06
 -1       107 0.00000E+00-4.13295E-06 4.13295E-06
 -1       108 0.00000E+00-4.13295E-06-4.13295E-06
 -1       109 0.00000E+00 4.13295E-06-4.13295E-06
 -1       114-3.57921E-06 2.06652E-06 4.13295E-06
 -1       115 3.57921E-06-2.06652E-06 4.13295E-06
 -1       116 3.57921E-06-2.06652E-06-4.13295E-06
 -1       117-3.57921E-06 2.06652E-06-4.13295E-06
 -1       140-2.87779E-04-1.82927E-02-4.10280E-06
 -1       141-3.01948E-04-1.82844E-02-4.10280E-06
 -1       142-3.01948E-04-1.82844E-02 4.10280E-06
 -1       143-2.87779E-04-1.82927E-02 4.10280E-06
 -1       148-2.94831E-04-1.82804E-02-4.10280E-06
 -1       149-2.94896E-04-1.82968E-02-4.10280E-06
 -1       150-2.94896E-04-1.82968E-02 4.10280E-06
 -1       151-2.94831E-04-1.82804E-02 4.10280E-06
 -1       156-2.87746E-04-1.82845E-02-4.10280E-06
 -1       157-3.01981E-04-1.82926E-02-4.10280E-06
 -1       158-3.01981E-04-1.82926E-02 4.10280E-06
 -1       159-2.87746E-04-1.82845E-02 4.10280E-06
 -1       190 4.61518E-03 9.40098E-07 1.46615E-06
 -1       191 4.68009E-03-9.40098E-07 1.46615E-06
 -1       192 4.68009E-03-9.40098E-07-1.46615E-06
 -1       193 4.61518E-03 9.40098E-07-1.46615E-06
 -1       198 4.66305E-03-2.85773E-05 1.46615E-06
 -1       199 4.63222E-03 2.85773E-05 1.46615E-06
 -1       200 4.63222E-03 2.85773E-05-1.46615E-06
 -1       201 4.66305E-03-2.85773E-05-1.46615E-06
 -1       224 2.38484E-03-1.05768E-02 7.71748E-07
 -1       225 2.37552E-03-1.05958E-02 7.71748E-07
 -1       226 2.37552E-03-1.05958E-02-7.71748E-07
 -1       227 2.38484E-03-1.05768E-02-7.71748E-07
 -1       232 2.37428E-03-1.05775E-02 7.71748E-07
 -1       233 2.38608E-03-1.05951E-02 7.71748E-07
 -1       234 2.38608E-03-1.05951E-02-7.71748E-07
 -1       235 2.37428E-03-1.05775E-02-7.71748E-07
 -1       240 2.39075E-03-1.05856E-02 7.71748E-07
 -1       241 2.36961E-03-1.05870E-02 7.71748E-07
 -1       242 2.36961E-03-1.05870E-02-7.71748E-07
 -1       243 2.39075E-03-1.05856E-02-7.71748E-07
 -1       274-3.80406E-03-1.38274E-02 3.00565E-06
 -1       275-3.79298E-03-1.38201E-02 3.00565E-06
 -1       276-3.79298E-03-1.38201E-02-3.00565E-06
 -1       277-3.80406E-03-1.38274E-02-3.00565E-06
 -1       282-3.79815E-03-1.38304E-02 3.00565E-06
 -1       283-3.79888E-03-1.38171E-02 3.00565E-06
 -1       284-3.79888E-03-1.38171E-02-3.00565E-06
 -1       285-3.79815E-03-1.38304E-02-3.00565E-06
 -1       290-3.80443E-03-1.38208E-02 3.00565E-06
 -1       291-3.79261E-03-1.38267E-02 3.00565E-06
 -1       292-3.79261E-03-1.38267E-02-3.00565E-06
 -1       293-3.80443E-03-1.38208E-02-3.00565E-06
 -3
    1PSTEP                         5           5           1          
  100CL  105 9.12500E-03          52                     1    5           1
 -4  DISP        4    1
 -5  D1          1    2    1    0
 -5  D2          1    2    2    0
 -5  D3          1    2    3    0
 -5  ALL         1    2    0    0    1ALL
 -1       106 0.00000E+00 3.69742E-07 3.69742E-07
 -1       107 0.00000E+00-3.69742E-07 3.69742E-07
 -1       108 0.00000E+00-3.69742E-07-3.69742E-07
 -1       109 0.00000E+00 3.69742E-07-3.69742E-07
 -1       114-3.20203E-07 1.84875E-07 3.69742E-07
 -1       115 3.20203E-07-1.84875E-07 3.69742E-07
 -1       116 3.20203E-07-1.84875E-07-3.69742E-07
 -1       117-3.20203E-07 1.84875E-07-3.69742E-07
 -1       140 3.69845E-03-1.02499E-02-2.81937E-06
 -1       141 3.69048E-03-1.02443E-02-2.81937E-06
 -1       142 3.69048E-03-1.02443E-02 2.81937E-06
 -1       143 3.69845E-03-1.02499E-02 2.81937E-06
 -1       148 3.69492E-03-1.02422E-02-2.81937E-06
 -1       149 3.69401E-03-1.02520E-02-2.81937E-06
 -1       150 3.69401E-03-1.02520E-02 2.81937E-06
 -1       151 3.69492E-03-1.02422E-02 2.81937E-06
 -1       156 3.69891E-03-1.02451E-02-2.81937E-06
 -1       157 3.69002E-03-1.02491E-02-2.81937E-06
 -1       158 3.69002E-03-1.02491E-02 2.81937E-06
 -1       159 3.69891E-03-1.02451E-02 2.81937E-06
 -1       190 7.30185E-03 7.29315E-07 8.68584E-07
 -1       191 7.33524E-03-7.29315E-07 8.68584E-07
 -1       192 7.33524E-03-7.29315E-07-8.68585E-07
 -1       193 7.30185E-03 7.29315E-07-8.68585E-07
 -1       198 7.32626E-03-1.48239E-05 8.68584E-07
 -1       199 7.31083E-03 1.48239E-05 8.68584E-07
 -1       200 7.31083E-03 1.48239E-05-8.68585E-07
 -1       201 7.32626E-03-1.48239E-05-8.68585E-07
 -1       224 6.06182E-03-4.48887E-03 3.91752E-07
 -1       225 6.05340E-03-4.50487E-03 3.91752E-07
 -1       226 6.05340E-03-4.50487E-03-3.91752E-07
 -1       227 6.06182E-03-4.48887E-03-3.91752E-07
 -1       232 6.05279E-03-4.48922E-03 3.91752E-07
 -1       233 6.06243E-03-4.50452E-03 3.91752E-07
 -1       234 6.06243E-03-4.50452E-03-3.91752E-07
 -1       235 6.05279E-03-4.48922E-03-3.91752E-07
 -1       240 6.06665E-03-4.49652E-03 3.91752E-07
 -1       241 6.04858E-03-4.49722E-03 3.91752E-07
 -1       242 6.04858E-03-4.49722E-03-3.91752E-07
 -1       243 6.06665E-03-4.49652E-03-3.91752E-07
 -1       274 3.54840E-03-6.29966E-03 1.07283E-06
 -1       275 3.55346E-03-6.29516E-03 1.07283E-06
 -1       276 3.55346E-03-6.29516E-03-1.07283E-06
 -1       277 3.54840E-03-6.29966E-03-1.07283E-06
 -1       282 3.55161E-03-6.30072E-03 1.07283E-06
 -1       283 3.55025E-03-6.29409E-03 1.07283E-06
 -1       284 3.55025E-03-6.29409E-03-1.07283E-06
 -1       285 3.55161E-03-6.30072E-03-1.07283E-06
 -1       290 3.54772E-03-6.29634E-03 1.07283E-06
 -1       291 3.55414E-03-6.29847E-03 1.07283E-06
 -1       292 3.55414E-03-6.29847E-03-1.07283E-06
 -1       293 3.54772E-03-6.29634E-03-1.07283E-06
 -3
    1PSTEP                         6           6           1          
  100CL  106 1.41875E-02          52                     1    6           1
 -4  DISP        4    1
 -5  D1          1    2    1    0
 -5  D2          1    2    2    0
 -5  D3          1    2    3    0
 -5  ALL         1    2    0    0    1ALL
 -1       106 0.00000E+00 3.27042E-06 3.27042E-06
 -1       107 0.00000E+00-3.27042E-06 3.27042E-06
 -1       108 0.00000E+00-3.27042E-06-3.27042E-06
 -1       109 0.00000E+00 3.27042E-06-3.27042E-06
 -1       114-2.83225E-06 1.63525E-06 3.27042E-06
 -1       115 2.83225E-06-1.63525E-06 3.27042E-06
 -1       116 2.83225E-06-1.63525E-06-3.27042E-06
 -1       117-2.83225E-06 1.63525E-06-3.27042E-06
 -1       140-1.09504E-03-1.29959E-02-2.95580E-06
 -1       141-1.10454E-03-1.29900E-02-2.95580E-06
 -1       142-1.10454E-03-1.29900E-02 2.95579E-06
 -1       143-1.09504E-03-1.29959E-02 2.95579E-06
 -1       148-1.09960E-03-1.29874E-02-2.95580E-06
 -1       149-1.09999E-03-1.29986E-02-2.95580E-06
 -1       150-1.09999E-03-1.29986E-02 2.95579E-06
 -1       151-1.09960E-03-1.29874E-02 2.95579E-06
 -1       156-1.09485E-03-1.29904E-02-2.95580E-06
 -1       157-1.10474E-03-1.29956E-02-2.95580E-06
 -1       158-1.10474E-03-1.29956E-02 2.95579E-06
 -1       159-1.09485E-03-1.29904E-02 2.95579E-06
 -1       190 1.83074E-03 9.48192E-07 1.18849E-06
 -1       191 1.87461E-03-9.48192E-07 1.18849E-06
 -1       192 1.87461E-03-9.48192E-07-1.18849E-06
 -1       193 1.83074E-03 9.48192E-07-1.18849E-06
 -1       198 1.86282E-03-1.94696E-05 1.18849E-06
 -1       199 1.84253E-03 1.94696E-05 1.18849E-06
 -1       200 1.84253E-03 1.94696E-05-1.18849E-06
 -1       201 1.86282E-03-1.94696E-05-1.18849E-06
 -1       224 5.31117E-04-6.48726E-03 2.67044E-07
 -1       225 5.24920E-04-6.49897E-03 2.67044E-07
 -1       226 5.24920E-04-6.49897E-03-2.67044E-07
 -1       227 5.31117E-04-6.48726E-03-2.67044E-07
 -1       232 5.24495E-04-6.48750E-03 2.67044E-07
 -1       233 5.31541E-04-6.49873E-03 2.67044E-07
 -1       234 5.31541E-04-6.49873E-03-2.67044E-07
 -1       235 5.24495E-04-6.48750E-03-2.67044E-07
 -1       240 5.34640E-04-6.49287E-03 2.67044E-07
 -1       241 5.21397E-04-6.49336E-03 2.67044E-07
 -1       242 5.21397E-04-6.49336E-03-2.67044E-07
 -1       243 5.34640E-04-6.49287E-03-2.67044E-07
 -1       274-3.73090E-03-8.55943E-03 1.80772E-06
 -1       275-3.72362E-03-8.55402E-03 1.80772E-06
 -1       276-3.72362E-03-8.55402E-03-1.80772E-06
 -1       277-3.73090E-03-8.55943E-03-1.80772E-06
 -1       282-3.72674E-03-8.56123E-03 1.80772E-06
 -1       283-3.72778E-03-8.55222E-03 1.80772E-06
 -1       284-3.72778E-03-8.55222E-03-1.80772E-06
 -1       285-3.72674E-03-8.56123E-03-1.80772E-06
 -1       290-3.73142E-03-8.55493E-03 1.80772E-06
 -1       291-3.72310E-03-8.55852E-03 1.80772E-06
 -1       292-3.72310E-03-8.55852E-03-1.80772E-06
 -1       293-3.73142E-03-8.55493E-03-1.80772E-06
 -3
    1PSTEP                         7           7           1          
  100CL  107 2.17813E-02          52                     1    7           1
 -4  DISP        4    1
 -5  D1          1    2    1    0
 -5  D2          1    2    2    0
 -5  D3          1    2    3    0
 -5  ALL         1    2    0    0    1ALL
 -1       106 0.00000E+00 1.27984E-06 1.27984E-06
 -1       107 0.00000E+00-1.27984E-06 1.27984E-06
 -1       108 0.00000E+00-1.27984E-06-1.27984E-06
 -1       109 0.00000E+00 1.27984E-06-1.27984E-06
 -1       114-1.10837E-06 6.39935E-07 1.27984E-06
 -1       115 1.10837E-06-6.39935E-07 1.27984E-06
 -1       116 1.10837E-06-6.39935E-07-1.27984E-06
 -1       117-1.10837E-06 6.39935E-07-1.27984E-06
 -1       140 3.42526E-03-1.35633E-02-3.46402E-06
 -1       141 3.41450E-03-1.35563E-02-3.46402E-06
 -1       142 3.41450E-03-1.35563E-02 3.46402E-06
 -1       143 3.42526E-03-1.35633E-02 3.46402E-06
 -1       148 3.42020E-03-1.35534E-02-3.46402E-06
 -1       149 3.41956E-03-1.35662E-02-3.46402E-06
 -1       150 3.41956E-03-1.35662E-02 3.46402E-06
 -1       151 3.42020E-03-1.35534E-02 3.46402E-06
 -1       156 3.42558E-03-1.35569E-02-3.46402E-06
 -1       157 3.41418E-03-1.35627E-02-3.46402E-06
 -1       158 3.41418E-03-1.35627E-02 3.46402E-06
 -1       159 3.42558E-03-1.35569E-02 3.46402E-06
 -1       190 8.01010E-03 9.22867E-07 1.19210E-06
 -1       191 8.05654E-03-9.22867E-07 1.19210E-06
 -1       192 8.05654E-03-9.22867E-07-1.19210E-06
 -1       193 8.01010E-03 9.22867E-07-1.19210E-06
 -1       198 8.04413E-03-2.05681E-05 1.19210E-06
 -1       199 8.02251E-03 2.05681E-05 1.19210E-06
 -1       200 8.02251E-03 2.05681E-05-1.19210E-06
 -1       201 8.04413E-03-2.05681E-05-1.19210E-06
 -1       224 6.23735E-03-7.03286E-03 6.51647E-07
 -1       225 6.22756E-03-7.05219E-03 6.51647E-07
 -1       226 6.22756E-03-7.05219E-03-6.51647E-07
 -1       227 6.23735E-03-7.03286E-03-6.51647E-07
 -1       232 6.22653E-03-7.03345E-03 6.51647E-07
 -1       233 6.23838E-03-7.05159E-03 6.51647E-07
 -1       234 6.23838E-03-7.05159E-03-6.51647E-07
 -1       235 6.22653E-03-7.03345E-03-6.51647E-07
 -1       240 6.24327E-03-7.04193E-03 6.51647E-07
 -1       241 6.22164E-03-7.04311E-03 6.51647E-07
 -1       242 6.22164E-03-7.04311E-03-6.51647E-07
 -1       243 6.24327E-03-7.04193E-03-6.51647E-07
 -1       274 2.41864E-03-9.52125E-03 1.83943E-06
 -1       275 2.42612E-03-9.51563E-03 1.83943E-06
 -1       276 2.42612E-03-9.51563E-03-1.83943E-06
 -1       277 2.41864E-03-9.52125E-03-1.83943E-06
 -1       282 2.42295E-03-9.52308E-03 1.83943E-06
 -1       283 2.42181E-03-9.51380E-03 1.83943E-06
 -1       284 2.42181E-03-9.51380E-03-1.83943E-06
 -1       285 2.42295E-03-9.52308E-03-1.83943E-06
 -1       290 2.41808E-03-9.51661E-03 1.83943E-06
 -1       291 2.42668E-03-9.52027E-03 1.83943E-06
 -1       292 2.42668E-03-9.52027E-03-1.83943E-06
 -1       293 2.41808E-03-9.51661E-03-1.83943E-06
 -3
    1PSTEP                         8           8           1          
  100CL  108 3.31719E-02          52                     1    8           1
 -4  DISP        4    1
 -5  D1          1    2    1    0
 -5  D2          1    2    2    0
 -5  D3          1    2    3    0
 -5  ALL         1    2    0    0    1ALL
 -1       106 0.00000E+00 2.54272E-06 2.54272E-06
 -1       107 0.00000E+00-2.54272E-06 2.54272E-06
 -1       108 0.00000E+00-2.54272E-06-2.54272E-06
 -1       109 0.00000E+00 2.54272E-06-2.54272E-06
 -1       114-2.20204E-06 1.27139E-06 2.54272E-06
 -1       115 2.20204E-06-1.27139E-06 2.54272E-06
 -1       116 2.20204E-06-1.27139E-06-2.54272E-06
 -1       117-2.20204E-06 1.27139E-06-2.54272E-06
 -1       140-4.30768E-04-1.12475E-02-2.66081E-06
 -1       141-4.38884E-04-1.12421E-02-2.66081E-06
 -1       142-4.38884E-04-1.12421E-02 2.66081E-06
 -1       143-4.30768E-04-1.12475E-02 2.66081E-06
 -1       148-4.34544E-04-1.12399E-02-2.66081E-06
 -1       149-4.35108E-04-1.12496E-02-2.66081E-06
 -1       150-4.35108E-04-1.12496E-02 2.66081E-06
 -1       151-4.34544E-04-1.12399E-02 2.66081E-06
 -1       156-4.30485E-04-1.12426E-02-2.66081E-06
 -1       157-4.39166E-04-1.12470E-02-2.66081E-06
 -1       158-4.39166E-04-1.12470E-02 2.66081E-06
 -1       159-4.30485E-04-1.12426E-02 2.66081E-06
 -1       190 2.14423E-03 8.67220E-07 1.03811E-06
 -1       191 2.18122E-03-8.67220E-07 1.03811E-06
 -1       192 2.18122E-03-8.67220E-07-1.03811E-06
 -1       193 2.14423E-03 8.67220E-07-1.03811E-06
 -1       198 2.17123E-03-1.64516E-05 1.03811E-06
 -1       199 2.15423E-03 1.64516E-05 1.03811E-06
 -1       200 2.15423E-03 1.64516E-05-1.03811E-06
 -1       201 2.17123E-03-1.64516E-05-1.03811E-06
 -1       224 1.09189E-03-5.14598E-03 1.62622E-07
 -1       225 1.08600E-03-5.15676E-03 1.62622E-07
 -1       226 1.08600E-03-5.15676E-03-1.62621E-07
 -1       227 1.09189E-03-5.14598E-03-1.62621E-07
 -1       232 1.08575E-03-5.14613E-03 1.62622E-07
 -1       233 1.09214E-03-5.15661E-03 1.62622E-07
 -1       234 1.09214E-03-5.15661E-03-1.62621E-07
 -1       235 1.08575E-03-5.14613E-03-1.62621E-07
 -1       240 1.09508E-03-5.15123E-03 1.62622E-07
 -1       241 1.08281E-03-5.15151E-03 1.62622E-07
 -1       242 1.08281E-03-5.15151E-03-1.62621E-07
 -1       243 1.09508E-03-5.15123E-03-1.62621E-07
 -1       274-2.40910E-03-6.89613E-03 1.39074E-06
 -1       275-2.40312E-03-6.89131E-03 1.39074E-06
 -1       276-2.40312E-03-6.89131E-03-1.39074E-06
 -1       277-2.40910E-03-6.89613E-03-1.39074E-06
 -1       282-2.40552E-03-6.89751E-03 1.39074E-06
 -1       283-2.40670E-03-6.88993E-03 1.39074E-06
 -1       284-2.40670E-03-6.88993E-03-1.39074E-06
 -1       285-2.40552E-03-6.89751E-03-1.39074E-06
 -1       290-2.40969E-03-6.89234E-03 1.39074E-06
 -1       291-2.40253E-03-6.89510E-03 1.39074E-06
 -1       292-2.40253E-03-6.89510E-03-1.39074E-06
 -1       293-2.40969E-03-6.89234E-03-1.39074E-06
 -3
    1PSTEP                         9           9           1          
  100CL  109 5.02578E-02          52                     1    9           1
 -4  DISP        4    1
 -5  D1          1    2    1    0
 -5  D2          1    2    2    0
 -5  D3          1    2    3    0
 -5  ALL         1    2    0    0    1ALL
 -1       106 0.00000E+00 1.79668E-06 1.79668E-06
 -1       107 0.00000E+00-1.79668E-06 1.79668E-06
 -1       108 0.00000E+00-1.79668E-06-1.79668E-06
 -1       109 0.00000E+00 1.79668E-06-1.79668E-06
 -1       114-1.55596E-06 8.98360E-07 1.79668E-06
 -1       115 1.55596E-06-8.98360E-07 1.79668E-06
 -1       116 1.55596E-06-8.98360E-07-1.79668E-06
 -1       117-1.55596E-06 8.98360E-07-1.79668E-06
 -1       140 2.71110E-03-1.43191E-02-3.55435E-06
 -1       141 2.69981E-03-1.43120E-02-3.55435E-06
 -1       142 2.69981E-03-1.43120E-02 3.55434E-06
 -1       143 2.71110E-03-1.43191E-02 3.55434E-06
 -1       148 2.70572E-03-1.43089E-02-3.55435E-06
 -1       149 2.70518E-03-1.43222E-02-3.55435E-06
 -1       150 2.70518E-03-1.43222E-02 3.55434E-06
 -1       151 2.70572E-03-1.43089E-02 3.55434E-06
 -1       156 2.71137E-03-1.43125E-02-3.55435E-06
 -1       157 2.69954E-03-1.43187E-02-3.55435E-06
 -1       158 2.69954E-03-1.43187E-02 3.55434E-06
 -1       159 2.71137E-03-1.43125E-02 3.55434E-06
 -1       190 7.30995E-03 9.49807E-07 1.25441E-06
 -1       191 7.35934E-03-9.49807E-07 1.25441E-06
 -1       192 7.35934E-03-9.49807E-07-1.25444E-06
 -1       193 7.30995E-03 9.49807E-07-1.25444E-06
 -1       198 7.34617E-03-2.18624E-05 1.25441E-06
 -1       199 7.32312E-03 2.18624E-05 1.25441E-06
 -1       200 7.32312E-03 2.18624E-05-1.25444E-06
 -1       201 7.34617E-03-2.18624E-05-1.25444E-06
 -1       224 5.46113E-03-7.60989E-03 6.63807E-07
 -1       225 5.45152E-03-7.62896E-03 6.63807E-07
 -1       226 5.45152E-03-7.62896E-03-6.63808E-07
 -1       227 5.46113E-03-7.60989E-03-6.63808E-07
 -1       232 5.45047E-03-7.61049E-03 6.63807E-07
 -1       233 5.46218E-03-7.62835E-03 6.63807E-07
 -1       234 5.46218E-03-7.62835E-03-6.63808E-07
 -1       235 5.45047E-03-7.61049E-03-6.63808E-07
 -1       240 5.46699E-03-7.61882E-03 6.63807E-07
 -1       241 5.44567E-03-7.62003E-03 6.63807E-07
 -1       242 5.44567E-03-7.62003E-03-6.63808E-07
 -1       243 5.46699E-03-7.61882E-03-6.63808E-07
 -1       274 1.25223E-03-1.02091E-02 2.03046E-06
 -1       275 1.26029E-03-1.02033E-02 2.03046E-06
 -1       276 1.26029E-03-1.02033E-02-2.03047E-06
 -1       277 1.25223E-03-1.02091E-02-2.03047E-06
 -1       282 1.25679E-03-1.02112E-02 2.03046E-06