
KNOT1
tra  101  0.0000E+00  0.0000E+00  0.0000E+00
rot  122  0.0000E+00  0.0000E+00  0.0000E+00
exp  123  0.3329E-02

KNOT1
tra  102  0.8602E-03 -0.1803E-01  0.3959E-15
rot  164 -0.2749E-14  0.3370E-14 -0.6540E-02
exp  165 -0.4461E-02

KNOT1
tra  103  0.5427E-02 -0.1628E-17  0.1332E-14
rot  206 -0.1282E-13 -0.1626E-13  0.2929E-01
exp  207  0.1554E-02

KNOT1
tra  104  0.3598E-02 -0.7912E-02 -0.2893E-15
rot  248  0.1531E-14 -0.1309E-14 -0.1103E-01
exp  249  0.2735E-03

KNOT1
tra  105 -0.1624E-02 -0.1071E-01 -0.6852E-15
rot  298 -0.3088E-15 -0.1377E-14  0.5708E-02
exp  299  0.2040E-02

 displacements (vx,vy,vz) for set NALLFRAME and time  0.1000000E-02

       101  0.000000E+00  0.000000E+00  0.000000E+00
       102  8.602042E-04 -1.803063E-02  3.959175E-16
       103  5.426805E-03 -1.627997E-18  1.332269E-15
       104  3.597637E-03 -7.911954E-03 -2.893405E-16
       105 -1.623970E-03 -1.070831E-02 -6.851822E-16

 forces (fx,fy,fz) for set NALLFRAME and time  0.1000000E-02

       101  1.083298E+03  8.070423E+03 -3.274181E-10
       102 -2.379058E+02 -1.631864E+04  2.117304E-09
       103 -4.615161E+02  5.117861E+03 -4.162303E-09
       104 -2.724335E+02  1.518226E+03  1.018634E-10
       105 -1.114424E+02  1.612129E+03  2.299203E-09

KNOT1
tra  101  0.0000E+00  0.0000E+00  0.0000E+00
rot  122  0.0000E+00  0.0000E+00  0.0000E+00
exp  123  0.2738E-02

KNOT1
tra  102  0.3217E-02 -0.1917E-01  0.3270E-14
rot  164 -0.3741E-14 -0.6591E-14 -0.8015E-02
exp  165 -0.4469E-02

KNOT1
tra  103  0.9817E-02 -0.1952E-17  0.1196E-14
rot  206 -0.5058E-14  0.1364E-13  0.3512E-01
exp  207  0.1644E-02

KNOT1
tra  104  0.7007E-02 -0.1218E-01 -0.2196E-14
rot  248 -0.4249E-14  0.1194E-14 -0.1428E-01
exp  249  0.1319E-02

KNOT1
tra  105  0.7207E-03 -0.1601E-01 -0.1349E-14
rot  298 -0.1088E-13 -0.2172E-14  0.6163E-02
exp  299  0.3444E-02

 displacements (vx,vy,vz) for set NALLFRAME and time  0.2000000E-02

       101  0.000000E+00  0.000000E+00  0.000000E+00
       102  3.216812E-03 -1.916699E-02  3.269633E-15
       103  9.816638E-03 -1.952411E-18  1.196207E-15
       104  7.006709E-03 -1.217743E-02 -2.195789E-15
       105  7.206971E-04 -1.601016E-02 -1.348576E-15

 forces (fx,fy,fz) for set NALLFRAME and time  0.2000000E-02

       101 -1.124585E+03  1.040785E+04 -1.091394E-11
       102  3.405688E+02 -9.984443E+03 -2.182787E-11
       103  4.596175E+02  7.758525E+03  2.910383E-11
       104  4.071504E+02 -3.885335E+03 -3.492460E-10
       105 -8.275125E+01 -4.296598E+03  3.492460E-10

KNOT1
tra  101  0.0000E+00  0.0000E+00  0.0000E+00
rot  122  0.0000E+00  0.0000E+00  0.0000E+00
exp  123  0.1800E-03

KNOT1
tra  102  0.1066E-02 -0.4165E-02  0.1132E-13
rot  164  0.9487E-14 -0.2379E-13 -0.1088E-02
exp  165 -0.1389E-02

KNOT1
tra  103  0.1811E-02 -0.2483E-18 -0.3690E-13
rot  206 -0.1186E-13  0.1593E-12  0.4472E-02
exp  207  0.2914E-03

KNOT1
tra  104  0.1763E-02  0.3840E-03 -0.1165E-14
rot  248 -0.1745E-13 -0.2697E-13 -0.3004E-02
exp  249 -0.3885E-03

KNOT1
tra  105  0.1289E-02  0.8425E-04  0.1192E-13
rot  298 -0.2555E-13  0.7138E-14  0.1242E-02
exp  299 -0.3315E-03

 displacements (vx,vy,vz) for set NALLFRAME and time  0.3500000E-02

       101  0.000000E+00  0.000000E+00  0.000000E+00
       102  1.065665E-03 -4.164774E-03  1.131826E-14
       103  1.810746E-03 -2.482865E-19 -3.690177E-14
       104  1.762804E-03  3.839676E-04 -1.165238E-15
       105  1.288586E-03  8.425092E-05  1.191542E-14

 forces (fx,fy,fz) for set NALLFRAME and time  0.3500000E-02

       101 -1.150003E+03  4.073293E+01  2.692104E-10
       102  4.465429E+02 -7.773501E+03 -8.418283E-09
       103 -1.893397E+02  9.061332E+01 -1.235094E-09
       104  1.041929E+02  3.660338E+03  1.018634E-10
       105  7.886069E+02  3.981816E+03  9.255018E-09

KNOT1
tra  101  0.0000E+00  0.0000E+00  0.0000E+00
rot  122  0.0000E+00  0.0000E+00  0.0000E+00
exp  123  0.4133E-02

KNOT1
tra  102 -0.2949E-03 -0.1829E-01 -0.1240E-13
rot  164  0.1085E-12  0.1589E-13 -0.7113E-02
exp  165 -0.4103E-02

KNOT1
tra  103  0.4648E-02 -0.1802E-17 -0.2106E-12
rot  206  0.1349E-12  0.4571E-12  0.3241E-01
exp  207  0.1466E-02

KNOT1
tra  104  0.2380E-02 -0.1059E-01  0.5453E-13
rot  248  0.7366E-13 -0.7271E-13 -0.1056E-01
exp  249  0.7717E-03

KNOT1
tra  105 -0.3799E-02 -0.1382E-01  0.5810E-13
rot  298  0.1011E-12  0.8356E-13  0.5891E-02
exp  299  0.3006E-02

 displacements (vx,vy,vz) for set NALLFRAME and time  0.5750000E-02

       101  0.000000E+00  0.000000E+00  0.000000E+00
       102 -2.948635E-04 -1.828856E-02 -1.239596E-14
       103  4.647632E-03 -1.801639E-18 -2.106478E-13
       104  2.380181E-03 -1.058627E-02  5.453433E-14
       105 -3.798517E-03 -1.382375E-02  5.809972E-14

 forces (fx,fy,fz) for set NALLFRAME and time  0.5750000E-02

       101  2.928124E+03  1.034726E+04  1.164153E-10
       102 -8.067465E+02 -1.190447E+04 -1.609624E-08
       103 -5.449632E+02  6.509483E+03  1.724402E-09
       104 -4.930275E+02 -2.313465E+03 -4.924914E-10
       105 -1.083387E+03 -2.638808E+03  1.473472E-08

KNOT1
tra  101  0.0000E+00  0.0000E+00  0.0000E+00
rot  122  0.0000E+00  0.0000E+00  0.0000E+00
exp  123  0.3697E-03

KNOT1
tra  102  0.3694E-02 -0.1025E-01 -0.1200E-12
rot  164  0.2311E-12  0.2148E-12 -0.3996E-02
exp  165 -0.2819E-02

KNOT1
tra  103  0.7319E-02 -0.9269E-18 -0.4611E-12
rot  206  0.2866E-12  0.5229E-12  0.1668E-01
exp  207  0.8686E-03

KNOT1
tra  104  0.6058E-02 -0.4497E-02  0.1173E-12
rot  248  0.2281E-12 -0.2767E-13 -0.9032E-02
exp  249  0.3918E-03

KNOT1
tra  105  0.3551E-02 -0.6297E-02  0.2677E-13
rot  298  0.3515E-12  0.2182E-12  0.3210E-02
exp  299  0.1073E-02

 displacements (vx,vy,vz) for set NALLFRAME and time  0.9125000E-02

       101  0.000000E+00  0.000000E+00  0.000000E+00
       102  3.694464E-03 -1.024711E-02 -1.199627E-13
       103  7.318542E-03 -9.268658E-19 -4.611074E-13
       104  6.057611E-03 -4.496867E-03  1.172573E-13
       105  3.550931E-03 -6.297407E-03  2.676942E-14

 forces (fx,fy,fz) for set NALLFRAME and time  0.9125000E-02

       101 -3.344417E+03  3.508888E+03  5.347829E-10
       102  1.043813E+03 -8.860057E+03 -1.133594E-08
       103  5.334055E+02  3.234536E+03  4.620233E-10
       104  6.296590E+02  1.007366E+03 -4.038156E-10
       105  1.137540E+03  1.109267E+03  1.074841E-08

KNOT1
tra  101  0.0000E+00  0.0000E+00  0.0000E+00
rot  122  0.0000E+00  0.0000E+00  0.0000E+00
exp  123  0.3270E-02

KNOT1
tra  102 -0.1100E-02 -0.1299E-01 -0.1438E-12
rot  164 -0.4330E-13  0.2833E-12 -0.4765E-02
exp  165 -0.2956E-02

KNOT1
tra  103  0.1853E-02 -0.1218E-17 -0.4836E-12
rot  206 -0.2921E-13  0.4155E-12  0.2191E-01
exp  207  0.1188E-02

KNOT1
tra  104  0.5280E-03 -0.6493E-02 -0.9092E-13
rot  248 -0.1027E-12  0.1670E-12 -0.6619E-02
exp  249  0.2670E-03

KNOT1
tra  105 -0.3727E-02 -0.8557E-02 -0.3440E-12
rot  298 -0.6791E-13  0.3175E-12  0.4153E-02
exp  299  0.1808E-02

 displacements (vx,vy,vz) for set NALLFRAME and time  0.1418750E-01

       101  0.000000E+00  0.000000E+00  0.000000E+00
       102 -1.099794E-03 -1.299298E-02 -1.438195E-13
       103  1.852677E-03 -1.217610E-18 -4.836278E-13
       104  5.280184E-04 -6.493115E-03 -9.091709E-14
       105 -3.727263E-03 -8.556726E-03 -3.440145E-13

 forces (fx,fy,fz) for set NALLFRAME and time  0.1418750E-01

       101  3.008948E+03  6.916159E+03  2.233719E-09
       102 -9.236804E+02 -1.050455E+04 -3.972673E-09
       103 -5.682867E+02  3.909908E+03  2.564775E-09
       104 -5.770375E+02 -1.412242E+02  2.721208E-09
       105 -9.399435E+02 -1.802936E+02 -3.536115E-09

KNOT1
tra  101  0.0000E+00  0.0000E+00  0.0000E+00
rot  122  0.0000E+00  0.0000E+00  0.0000E+00
exp  123  0.1280E-02

KNOT1
tra  102  0.3420E-02 -0.1356E-01 -0.1272E-12
rot  164 -0.9777E-13  0.2396E-12 -0.5401E-02
exp  165 -0.3464E-02

KNOT1
tra  103  0.8033E-02 -0.1289E-17 -0.3791E-12
rot  206 -0.1851E-12  0.2499E-12  0.2319E-01
exp  207  0.1192E-02

KNOT1
tra  104  0.6232E-02 -0.7043E-02 -0.1269E-12
rot  248 -0.1214E-12  0.1752E-12 -0.1081E-01
exp  249  0.6516E-03

KNOT1
tra  105  0.2422E-02 -0.9518E-02 -0.3824E-12
rot  298 -0.1705E-12  0.2849E-12  0.4296E-02
exp  299  0.1839E-02

 displacements (vx,vy,vz) for set NALLFRAME and time  0.2178125E-01

       101  0.000000E+00  0.000000E+00  0.000000E+00
       102  3.419880E-03 -1.355978E-02 -1.271934E-13
       103  8.033319E-03 -1.289184E-18 -3.791319E-13
       104  6.232455E-03 -7.042521E-03 -1.269347E-13
       105  2.422380E-03 -9.518442E-03 -3.823661E-13

 forces (fx,fy,fz) for set NALLFRAME and time  0.2178125E-01

       101 -2.439788E+03  5.905807E+03  1.182525E-08
       102  7.565034E+02 -9.887908E+03  5.500624E-09
       103  4.899928E+02  4.706485E+03 -8.538336E-09
       104  4.719807E+02 -3.581014E+02 -4.703907E-09
       105  7.213109E+02 -3.662826E+02 -4.074536E-09

KNOT1
tra  101  0.0000E+00  0.0000E+00  0.0000E+00
rot  122  0.0000E+00  0.0000E+00  0.0000E+00
exp  123  0.2543E-02

KNOT1
tra  102 -0.4348E-03 -0.1124E-01 -0.1093E-12
rot  164  0.6932E-12  0.1645E-13 -0.4069E-02
exp  165 -0.2661E-02

KNOT1
tra  103  0.2163E-02 -0.1027E-17 -0.7725E-12
rot  206  0.5927E-12  0.1148E-11  0.1848E-01
exp  207  0.1038E-02

KNOT1
tra  104  0.1089E-02 -0.5151E-02  0.3091E-12
rot  248  0.7659E-12 -0.3236E-12 -0.6135E-02
exp  249  0.1626E-03

KNOT1
tra  105 -0.2406E-02 -0.6894E-02  0.4696E-12
rot  298  0.7875E-12  0.1463E-12  0.3574E-02
exp  299  0.1391E-02

 displacements (vx,vy,vz) for set NALLFRAME and time  0.3317188E-01

       101  0.000000E+00  0.000000E+00  0.000000E+00
       102 -4.348258E-04 -1.124479E-02 -1.093247E-13
       103  2.162729E-03 -1.026604E-18 -7.725208E-13
       104  1.088944E-03 -5.151370E-03  3.090904E-13
       105 -2.406110E-03 -6.893720E-03  4.696348E-13

 forces (fx,fy,fz) for set NALLFRAME and time  0.3317188E-01

       101  1.891450E+03  5.480342E+03  6.322807E-08
       102 -5.903719E+02 -9.887814E+03  4.064350E-08
       103 -4.057158E+02  3.181753E+03 -1.233911E-07
       104 -3.603295E+02  5.926485E+02 -9.524229E-08
       105 -5.350329E+02  6.330701E+02  1.147782E-07

KNOT1
tra  101  0.0000E+00  0.0000E+00  0.0000E+00
rot  122  0.0000E+00  0.0000E+00  0.0000E+00
exp  123  0.1797E-02

KNOT1
tra  102  0.2705E-02 -0.1432E-01 -0.3226E-11
rot  164  0.1833E-11  0.5767E-11 -0.5664E-02
exp  165 -0.3554E-02

KNOT1
tra  103  0.7335E-02 -0.1371E-17 -0.1393E-10
rot  206  0.2281E-11  0.1481E-10  0.2467E-01
exp  207  0.1254E-02

KNOT1
tra  104  0.5456E-02 -0.7619E-02 -0.5775E-12
rot  248  0.1039E-11  0.2841E-11 -0.1065E-01
exp  249  0.6638E-03

KNOT1
tra  105  0.1256E-02 -0.1021E-01 -0.5440E-11
rot  298  0.8999E-12  0.7958E-11  0.4551E-02
exp  299  0.2030E-02

 displacements (vx,vy,vz) for set NALLFRAME and time  0.5025781E-01

       101  0.000000E+00  0.000000E+00  0.000000E+00
       102  2.705454E-03 -1.431557E-02 -3.226452E-12
       103  7.334646E-03 -1.371346E-18 -1.393433E-11
       104  5.456327E-03 -7.619423E-03 -5.775109E-13
       105  1.256256E-03 -1.020621E-02 -5.440416E-12

 forces (fx,fy,fz) for set NALLFRAME and time  0.5025781E-01

       101 -1.429788E+03  6.667207E+03  2.095148E-07
       102  4.555665E+02 -1.021483E+04  2.361121E-07
       103  3.132331E+02  4.977012E+03 -5.848160E-07
       104  2.744682E+02 -6.901449E+02 -4.982467E-07
       105  3.865205E+02 -7.392475E+02  6.374266E-07

KNOT1
tra  101  0.0000E+00  0.0000E+00  0.0000E+00
rot  122  0.0000E+00  0.0000E+00  0.0000E+00
exp  123  0.2199E-02

KNOT1
tra  102  0.2036E-03 -0.1107E-01 -0.4492E-11
rot  164  0.4506E-11  0.6862E-11 -0.4047E-02
exp  165 -0.2681E-02

KNOT1
tra  103  0.2949E-02 -0.1008E-17 -0.1809E-10
rot  206 -0.3403E-13  0.1839E-10  0.1814E-01
exp  207  0.1013E-02

KNOT1
tra  104  0.1858E-02 -0.5021E-02 -0.6275E-12
rot  248  0.2883E-11  0.4481E-11 -0.6573E-02
exp  249  0.1947E-03

KNOT1
tra  105 -0.1477E-02 -0.6768E-02 -0.5659E-11
rot  298  0.2560E-11  0.8882E-11  0.3509E-02
exp  299  0.1334E-02

 displacements (vx,vy,vz) for set NALLFRAME and time  0.7588672E-01

       101  0.000000E+00  0.000000E+00  0.000000E+00
       102  2.035647E-04 -1.106564E-02 -4.492260E-12
       103  2.949401E-03 -1.007969E-18 -1.808771E-11
       104  1.857811E-03 -5.020750E-03 -6.275231E-13
       105 -1.476789E-03 -6.767507E-03 -5.658915E-12

 forces (fx,fy,fz) for set NALLFRAME and time  0.7588672E-01

       101  1.074844E+03  5.148506E+03  5.660331E-07
       102 -3.389707E+02 -9.737838E+03  7.252966E-07
       103 -2.595864E+02  3.173422E+03 -1.711203E-06
       104 -2.004183E+02  6.824621E+02 -1.411543E-06
       105 -2.758686E+02  7.334481E+02  1.831431E-06

KNOT1
tra  101  0.0000E+00  0.0000E+00  0.0000E+00
rot  122  0.0000E+00  0.0000E+00  0.0000E+00
exp  123  0.2015E-02

KNOT1
tra  102  0.2174E-02 -0.1418E-01 -0.2762E-10
rot  164  0.8200E-11  0.5152E-10 -0.5560E-02
exp  165 -0.3480E-02

KNOT1
tra  103  0.6586E-02 -0.1355E-17 -0.1117E-09
rot  206  0.1197E-10  0.1115E-09  0.2439E-01
exp  207  0.1248E-02

KNOT1
tra  104  0.4774E-02 -0.7506E-02 -0.8782E-11
rot  248 -0.6918E-12  0.2856E-10 -0.1012E-01
exp  249  0.6145E-03

KNOT1
tra  105  0.5473E-03 -0.1003E-01 -0.5264E-10
rot  298  0.1518E-11  0.6623E-10  0.4512E-02
exp  299  0.2012E-02

 displacements (vx,vy,vz) for set NALLFRAME and time  0.1143301E+00

       101  0.000000E+00  0.000000E+00  0.000000E+00
       102  2.173872E-03 -1.418096E-02 -2.761730E-11
       103  6.586437E-03 -1.355253E-18 -1.116657E-10
       104  4.773646E-03 -7.506261E-03 -8.782469E-12
       105  5.473406E-04 -1.003033E-02 -5.264095E-11

 forces (fx,fy,fz) for set NALLFRAME and time  0.1143301E+00

       101 -8.001413E+02  6.741349E+03  1.033861E-06
       102  2.616315E+02 -1.026181E+04  1.485287E-06
       103  1.898884E+02  4.853601E+03 -3.623514E-06
       104  1.506867E+02 -6.410049E+02 -2.928197E-06
       105  1.979347E+02 -6.921313E+02  4.032576E-06

KNOT1
tra  101  0.0000E+00  0.0000E+00  0.0000E+00
rot  122  0.0000E+00  0.0000E+00  0.0000E+00
exp  123  0.2066E-02

KNOT1
tra  102  0.6324E-03 -0.1136E-01  0.4427E-11
rot  164  0.2397E-10 -0.1720E-10 -0.4209E-02
exp  165 -0.2777E-02

KNOT1
tra  103  0.3613E-02 -0.1041E-17  0.6176E-11
rot  206 -0.4206E-11  0.6560E-11  0.1873E-01
exp  207  0.1034E-02

KNOT1
tra  104  0.2435E-02 -0.5255E-02  0.9863E-11
rot  248  0.2282E-10 -0.8752E-11 -0.7113E-02
exp  249  0.2529E-03

KNOT1
tra  105 -0.9466E-03 -0.7090E-02  0.2935E-10
rot  298  0.1676E-10 -0.1581E-10  0.3600E-02
exp  299  0.1391E-02

 displacements (vx,vy,vz) for set NALLFRAME and time  0.1719951E+00

       101  0.000000E+00  0.000000E+00  0.000000E+00
       102  6.324127E-04 -1.135577E-02  4.427485E-12
       103  3.612788E-03 -1.040580E-18  6.175518E-12
       104  2.435435E-03 -5.254842E-03  9.862583E-12
       105 -9.466194E-04 -7.089958E-03  2.935172E-11

 forces (fx,fy,fz) for set NALLFRAME and time  0.1719951E+00

       101  5.976906E+02  5.216715E+03  1.966437E-06
       102 -1.913207E+02 -9.750795E+03  2.652625E-06
       103 -1.586872E+02  3.356659E+03 -7.278155E-06
       104 -1.089439E+02  5.668836E+02 -5.430702E-06
       105 -1.387388E+02  6.105380E+02  8.089810E-06

KNOT1
tra  101  0.0000E+00  0.0000E+00  0.0000E+00
rot  122  0.0000E+00  0.0000E+00  0.0000E+00
exp  123  0.2092E-02

KNOT1
tra  102  0.1833E-02 -0.1383E-01 -0.1321E-09
rot  164  0.1706E-10  0.2524E-09 -0.5379E-02
exp  165 -0.3379E-02

KNOT1
tra  103  0.6019E-02 -0.1316E-17 -0.5142E-09
rot  206  0.4272E-10  0.4937E-09  0.2368E-01
exp  207  0.1226E-02

KNOT1
tra  104  0.4297E-02 -0.7224E-02 -0.5113E-10
rot  248 -0.2700E-10  0.1442E-09 -0.9615E-02
exp  249  0.5597E-03

KNOT1
tra  105  0.1544E-03 -0.9652E-02 -0.2685E-09
rot  298 -0.1127E-10  0.3143E-09  0.4399E-02
exp  299  0.1938E-02

 displacements (vx,vy,vz) for set NALLFRAME and time  0.2584927E+00

       101  0.000000E+00  0.000000E+00  0.000000E+00
       102  1.833278E-03 -1.382841E-02 -1.320639E-10
       103  6.019219E-03 -1.315866E-18 -5.142463E-10
       104  4.296866E-03 -7.223994E-03 -5.112663E-11
       105  1.544179E-04 -9.652408E-03 -2.685196E-10

 forces (fx,fy,fz) for set NALLFRAME and time  0.2584927E+00

       101 -4.437056E+02  6.598754E+03  3.052082E-06
       102  1.481002E+02 -1.022080E+04  4.421730E-06
       103  1.143660E+02  4.649064E+03 -1.278803E-05
       104  8.162947E+01 -4.931703E+02 -9.300746E-06
       105  9.960986E+01 -5.338511E+02  1.461496E-05

KNOT1
tra  101  0.0000E+00  0.0000E+00  0.0000E+00
rot  122  0.0000E+00  0.0000E+00  0.0000E+00
exp  123  0.2021E-02

KNOT1
tra  102  0.9062E-03 -0.1171E-01  0.1449E-09
rot  164  0.7104E-10 -0.3046E-09 -0.4385E-02
exp  165 -0.2872E-02

KNOT1
tra  103  0.4091E-02 -0.1080E-17  0.5123E-09
rot  206 -0.3792E-10 -0.4369E-09  0.1943E-01
exp  207  0.1062E-02

KNOT1
tra  104  0.2829E-02 -0.5536E-02  0.8791E-10
rot  248  0.1068E-09 -0.1775E-09 -0.7557E-02
exp  249  0.3048E-03

KNOT1
tra  105 -0.6466E-03 -0.7462E-02  0.3677E-09
rot  298  0.7245E-10 -0.3565E-09  0.3712E-02
exp  299  0.1466E-02

 displacements (vx,vy,vz) for set NALLFRAME and time  0.3584927E+00

       101  0.000000E+00  0.000000E+00  0.000000E+00
       102  9.062169E-04 -1.170769E-02  1.448536E-10
       103  4.091363E-03 -1.079967E-18  5.123160E-10
       104  2.828773E-03 -5.535962E-03  8.791368E-11
       105 -6.465808E-04 -7.462192E-03  3.677090E-10

 forces (fx,fy,fz) for set NALLFRAME and time  0.3584927E+00

       101  3.224115E+02  5.379476E+03  2.960114E-06
       102 -1.053789E+02 -9.803384E+03  4.149239E-06
       103 -9.359459E+01  3.551006E+03 -1.238565E-05
       104 -5.725640E+01  4.198643E+02 -8.536288E-06
       105 -6.618164E+01  4.530377E+02  1.381262E-05

KNOT1
tra  101  0.0000E+00  0.0000E+00  0.0000E+00
rot  122  0.0000E+00  0.0000E+00  0.0000E+00
exp  123  0.2124E-02

KNOT1
tra  102  0.1605E-02 -0.1351E-01 -0.2465E-09
rot  164 -0.1511E-10  0.4875E-09 -0.5223E-02
exp  165 -0.3296E-02

KNOT1
tra  103  0.5613E-02 -0.1280E-17 -0.9343E-09
rot  206  0.8860E-10  0.8685E-09  0.2304E-01
exp  207  0.1204E-02

KNOT1
tra  104  0.3966E-02 -0.6971E-02 -0.1107E-09
rot  248 -0.9225E-10  0.2761E-09 -0.9231E-02
exp  249  0.5158E-03

KNOT1
tra  105 -0.9037E-04 -0.9319E-02 -0.5374E-09
rot  298 -0.4810E-10  0.5925E-09  0.4298E-02
exp  299  0.1870E-02

 displacements (vx,vy,vz) for set NALLFRAME and time  0.4584927E+00

       101  0.000000E+00  0.000000E+00  0.000000E+00
       102  1.605043E-03 -1.351196E-02 -2.464661E-10
       103  5.612624E-03 -1.280290E-18 -9.343456E-10
       104  3.965572E-03 -6.971464E-03 -1.107228E-10
       105 -9.037257E-05 -9.319072E-03 -5.374170E-10

 forces (fx,fy,fz) for set NALLFRAME and time  0.4584927E+00

       101 -2.189567E+02  6.445883E+03  1.730659E-06
       102  7.548005E+01 -1.017206E+04  2.884222E-06
       103  6.428293E+01  4.474367E+03 -8.585876E-06
       104  3.864672E+01 -3.589947E+02 -6.180275E-06
       105  4.054698E+01 -3.891969E+02  1.015128E-05

KNOT1
tra  101  0.0000E+00  0.0000E+00  0.0000E+00
rot  122  0.0000E+00  0.0000E+00  0.0000E+00
exp  123  0.1996E-02

KNOT1
tra  102  0.1099E-02 -0.1198E-01  0.1667E-09
rot  164  0.4177E-10 -0.3441E-09 -0.4520E-02
exp  165 -0.2944E-02

KNOT1
tra  103  0.4438E-02 -0.1111E-17  0.6302E-09
rot  206 -0.8375E-10 -0.5811E-09  0.1999E-01
exp  207  0.1085E-02

KNOT1
tra  104  0.3110E-02 -0.5756E-02  0.8181E-10
rot  248  0.8554E-10 -0.1877E-09 -0.7887E-02
exp  249  0.3437E-03

KNOT1
tra  105 -0.4413E-03 -0.7753E-02  0.3909E-09
rot  298  0.4884E-10 -0.4168E-09  0.3801E-02
exp  299  0.1526E-02

 displacements (vx,vy,vz) for set NALLFRAME and time  0.5584927E+00

       101  0.000000E+00  0.000000E+00  0.000000E+00
       102  1.099397E-03 -1.198385E-02  1.666587E-10
       103  4.438218E-03 -1.110884E-18  6.302421E-10
       104  3.110396E-03 -5.756288E-03  8.180955E-11
       105 -4.413137E-04 -7.752609E-03  3.909475E-10

 forces (fx,fy,fz) for set NALLFRAME and time  0.5584927E+00

       101  1.331752E+02  5.514309E+03  2.118126E-06
       102 -4.592293E+01 -9.847777E+03  1.809087E-06
       103 -4.800036E+01  3.701249E+03 -6.841757E-06
       104 -2.180693E+01  3.037349E+02 -4.554819E-06
       105 -1.744500E+01  3.284843E+02  7.469363E-06

KNOT1
tra  101  0.0000E+00  0.0000E+00  0.0000E+00
rot  122  0.0000E+00  0.0000E+00  0.0000E+00
exp  123  0.2143E-02

KNOT1
tra  102  0.1442E-02 -0.1327E-01 -0.1316E-09
rot  164  0.1371E-10  0.2639E-09 -0.5106E-02
exp  165 -0.3233E-02

KNOT1
tra  103  0.5318E-02 -0.1254E-17 -0.5444E-09
rot  206  0.1064E-09  0.5489E-09  0.2256E-01
exp  207  0.1187E-02

KNOT1
tra  104  0.3727E-02 -0.6780E-02 -0.4289E-10
rot  248 -0.2496E-10  0.1270E-09 -0.8948E-02
exp  249  0.4830E-03

KNOT1
tra  105 -0.2618E-03 -0.9067E-02 -0.2706E-09
rot  298  0.1924E-11  0.3371E-09  0.4220E-02
exp  299  0.1818E-02

 displacements (vx,vy,vz) for set NALLFRAME and time  0.6584927E+00

       101  0.000000E+00  0.000000E+00  0.000000E+00
       102  1.442136E-03 -1.327163E-02 -1.316446E-10
       103  5.317642E-03 -1.253609E-18 -5.443861E-10
       104  3.726972E-03 -6.779816E-03 -4.288696E-11
       105 -2.617659E-04 -9.066741E-03 -2.706135E-10

 forces (fx,fy,fz) for set NALLFRAME and time  0.6584927E+00

       101 -6.101613E+01  6.326520E+03  1.969238E-07
       102  2.445561E+01 -1.013327E+04  1.761779E-06
       103  2.826110E+01  4.343074E+03 -4.175512E-06
       104  8.623919E+00 -2.570734E+02 -2.981746E-06
       105 -3.244953E-01 -2.792502E+02  5.198559E-06

KNOT1
tra  101  0.0000E+00  0.0000E+00  0.0000E+00
rot  122  0.0000E+00  0.0000E+00  0.0000E+00
exp  123  0.1981E-02

KNOT1
tra  102  0.1236E-02 -0.1219E-01  0.2871E-10
rot  164 -0.1810E-10 -0.6638E-10 -0.4622E-02
exp  165 -0.2998E-02

KNOT1
tra  103  0.4688E-02 -0.1134E-17  0.1731E-09
rot  206 -0.1046E-09 -0.2195E-09  0.2041E-01
exp  207  0.1101E-02

KNOT1
tra  104  0.3312E-02 -0.5923E-02 -0.7092E-11
rot  248 -0.1546E-10 -0.3754E-11 -0.8128E-02
exp  249  0.3723E-03

KNOT1
tra  105 -0.2992E-03 -0.7971E-02  0.4869E-10
rot  298 -0.2633E-10 -0.1029E-09  0.3868E-02
exp  299  0.1571E-02

 displacements (vx,vy,vz) for set NALLFRAME and time  0.7584927E+00

       101  0.000000E+00  0.000000E+00  0.000000E+00
       102  1.235998E-03 -1.219249E-02  2.870648E-11
       103  4.687898E-03 -1.134177E-18  1.730915E-10
       104  3.311507E-03 -5.922619E-03 -7.092381E-12
       105 -2.992421E-04 -7.971285E-03  4.868903E-11

 forces (fx,fy,fz) for set NALLFRAME and time  0.7584927E+00

       101  1.763227E+00  5.619247E+03  1.746161E-06
       102 -4.368661E+00 -9.882646E+03  4.847461E-07
       103 -1.605949E+01  3.813845E+03 -3.478835E-06
       104  2.788419E+00  2.156558E+02 -2.290661E-06
       105  1.587651E+01  2.338983E+02  3.538575E-06

KNOT1
tra  101  0.0000E+00  0.0000E+00  0.0000E+00
rot  122  0.0000E+00  0.0000E+00  0.0000E+00
exp  123  0.2153E-02

KNOT1
tra  102  0.1328E-02 -0.1309E-01  0.3162E-10
rot  164  0.5969E-10 -0.5866E-10 -0.5018E-02
exp  165 -0.3186E-02

KNOT1
tra  103  0.5107E-02 -0.1234E-17  0.1848E-10
rot  206  0.1184E-09  0.7833E-10  0.2220E-01
exp  207  0.1174E-02

KNOT1
tra  104  0.3558E-02 -0.6636E-02  0.5257E-10
rot  248  0.7284E-10 -0.8166E-10 -0.8742E-02
exp  249  0.4589E-03

KNOT1
tra  105 -0.3785E-03 -0.8878E-02  0.1144E-09
rot  298  0.6991E-10 -0.3565E-10  0.4162E-02
exp  299  0.1779E-02

 displacements (vx,vy,vz) for set NALLFRAME and time  0.8584927E+00

       101  0.000000E+00  0.000000E+00  0.000000E+00
       102  1.328348E-03 -1.309080E-02  3.161502E-11
       103  5.107326E-03 -1.233703E-18  1.848319E-11
       104  3.558409E-03 -6.635719E-03  5.256608E-11
       105 -3.784912E-04 -8.877562E-03  1.144416E-10

 forces (fx,fy,fz) for set NALLFRAME and time  0.8584927E+00

       101  4.705273E+01  6.233919E+03 -9.130963E-07
       102 -1.050538E+01 -1.010267E+04  8.157367E-07
       103  2.955432E+00  4.245399E+03 -1.906672E-06
       104 -1.177891E+01 -1.802808E+02 -1.048738E-06
       105 -2.772387E+01 -1.963643E+02  3.052775E-06

KNOT1
tra  101  0.0000E+00  0.0000E+00  0.0000E+00
rot  122  0.0000E+00  0.0000E+00  0.0000E+00
exp  123  0.1974E-02

KNOT1
tra  102  0.1330E-02 -0.1235E-01 -0.1036E-09
rot  164 -0.6546E-10  0.1986E-09 -0.4698E-02
exp  165 -0.3038E-02

KNOT1
tra  103  0.4864E-02 -0.1152E-17 -0.2771E-09
rot  206 -0.1117E-09  0.1497E-09  0.2072E-01
exp  207  0.1114E-02

KNOT1
tra  104  0.3452E-02 -0.6047E-02 -0.8748E-10
rot  248 -0.1038E-09  0.1664E-09 -0.8302E-02
exp  249  0.3930E-03

KNOT1
tra  105 -0.2044E-03 -0.8135E-02 -0.2711E-09
rot  298 -0.8736E-10  0.2000E-09  0.3919E-02
exp  299  0.1605E-02

 displacements (vx,vy,vz) for set NALLFRAME and time  0.9584927E+00

       101  0.000000E+00  0.000000E+00  0.000000E+00
       102  1.330038E-03 -1.234881E-02 -1.035920E-10
       103  4.863976E-03 -1.151541E-18 -2.771120E-10
       104  3.451822E-03 -6.047156E-03 -8.747506E-11
       105 -2.043663E-04 -8.134501E-03 -2.710536E-10

 forces (fx,fy,fz) for set NALLFRAME and time  0.9584927E+00

       101 -8.643814E+01  5.700601E+03  1.711360E-06
       102  2.372565E+01 -9.909960E+03 -7.868221E-08
       103  5.752708E+00  3.897359E+03 -1.855043E-06
       104  1.923737E+01  1.493749E+02 -1.063938E-06
       105  3.772241E+01  1.626243E+02  1.286298E-06

KNOT1
tra  101  0.0000E+00  0.0000E+00  0.0000E+00
rot  122  0.0000E+00  0.0000E+00  0.0000E+00
exp  123  0.2182E-02

KNOT1
tra  102  0.1200E-02 -0.1296E-01  0.1962E-09
rot  164  0.1073E-09 -0.3837E-09 -0.4948E-02
exp  165 -0.3148E-02

KNOT1
tra  103  0.4893E-02 -0.1218E-17  0.5830E-09
rot  206  0.1348E-09 -0.3911E-09  0.2192E-01
exp  207  0.1165E-02

KNOT1
tra  104  0.3378E-02 -0.6528E-02  0.1490E-09
rot  248  0.1733E-09 -0.2930E-09 -0.8552E-02
exp  249  0.4377E-03

KNOT1
tra  105 -0.5263E-03 -0.8733E-02  0.5034E-09
rot  298  0.1410E-09 -0.4105E-09  0.4119E-02
exp  299  0.1751E-02

 displacements (vx,vy,vz) for set NALLFRAME and time  0.1000000E+01

       101  0.000000E+00  0.000000E+00  0.000000E+00
       102  1.199778E-03 -1.295542E-02  1.961841E-10
       103  4.892520E-03 -1.218457E-18  5.830240E-10
       104  3.378045E-03 -6.527634E-03  1.490254E-10
       105 -5.263473E-04 -8.732912E-03  5.033573E-10

 forces (fx,fy,fz) for set NALLFRAME and time  0.1000000E+01

       101  1.814241E+02  6.178871E+03 -1.788339E-06
       102 -5.294841E+01 -1.008579E+04  4.732065E-07
       103 -2.620717E+01  4.167577E+03  5.164020E-07
       104 -3.762511E+01 -1.243152E+02  2.072920E-07
       105 -6.464345E+01 -1.363405E+02  5.914426E-07
